file 8434627 1324623610                                         
version 2
run General-0-20111223-17:52:40-50808
attr configname General
attr datetime 20111223-17:52:40
attr experiment General
attr inifile omnetpp.ini
attr iterationvars "$0=\"1000\""
attr iterationvars2 "$0=\"1000\", $repetition=0"
attr measurement "$0=\"1000\""
attr network Inet
attr processid 50808
attr repetition 0
attr replication #0
attr resultdir results
attr runnumber 0
attr seedset 0

vector 4924  Inet.sas16.host38.ppp[0].queue  "queue length"  ETV
vector 5322  Inet.sas17.host56.ppp[0].queue  "queue length"  ETV
vector 1086  Inet.tas3.host20.ppp[0].queue  "queue length"  ETV
vector 4638  Inet.sas15.host88.ppp[0].queue  "queue length"  ETV
vector 4894  Inet.sas16.host23.ppp[0].queue  "queue length"  ETV
vector 5758  Inet.sas18.host82.ppp[0].queue  "queue length"  ETV
vector 2440  Inet.tas6.host76.ppp[0].queue  "queue length"  ETV
vector 850  Inet.tas2.host44.ppp[0].queue  "queue length"  ETV
vector 3148  Inet.tas9.host41.ppp[0].queue  "queue length"  ETV
vector 3400  Inet.tas10.host19.ppp[0].queue  "queue length"  ETV
vector 2608  Inet.sas7.host13.ppp[0].queue  "queue length"  ETV
vector 2496  Inet.tas6.host_WebServer104.ppp[0].queue  "queue length"  ETV
vector 2298  Inet.tas6.edge14.ppp[0].queue  "queue length"  ETV
vector 888  Inet.tas3.gw1.ppp[2].queue  "queue length"  ETV
vector 926  Inet.tas3.edge4.ppp[1].queue  "queue length"  ETV
vector 616  Inet.sas1.host70.ppp[0].queue  "queue length"  ETV
vector 2814  Inet.sas8.host23.ppp[0].queue  "queue length"  ETV
vector 3676  Inet.sas11.host49.ppp[0].queue  "queue length"  ETV
vector 3634  Inet.sas11.host28.ppp[0].queue  "queue length"  ETV
vector 2434  Inet.tas6.host73.ppp[0].queue  "queue length"  ETV
vector 1392  Inet.tas4.host_WebServer27.ppp[0].queue  "queue length"  ETV
vector 1278  Inet.tas4.edge4.ppp[0].queue  "queue length"  ETV
vector 4306  Inet.sas15.gw2.ppp[4].queue  "queue length"  ETV
vector 4478  Inet.sas15.edge12.ppp[4].queue  "queue length"  ETV
vector 1134  Inet.tas3.host_WebServer44.ppp[0].queue  "queue length"  ETV
vector 980  Inet.tas3.edge8.ppp[0].queue  "queue length"  ETV
vector 4660  Inet.sas16.gw1.ppp[2].queue  "queue length"  ETV
vector 4704  Inet.sas16.edge4.ppp[4].queue  "queue length"  ETV
vector 3966  Inet.sas13.host_WebServer23.ppp[0].queue  "queue length"  ETV
vector 3866  Inet.sas13.edge3.ppp[0].queue  "queue length"  ETV
vector 5404  Inet.sas18.gw2.ppp[2].queue  "queue length"  ETV
vector 5564  Inet.sas18.edge11.ppp[4].queue  "queue length"  ETV
vector 2416  Inet.tas6.host_WebServer64.ppp[0].queue  "queue length"  ETV
vector 2208  Inet.tas6.edge9.ppp[0].queue  "queue length"  ETV
vector 2102  Inet.tas6.gw2.ppp[2].queue  "queue length"  ETV
vector 2250  Inet.tas6.edge11.ppp[5].queue  "queue length"  ETV
vector 822  Inet.tas2.host_WebServer30.ppp[0].queue  "queue length"  ETV
vector 708  Inet.tas2.edge4.ppp[0].queue  "queue length"  ETV
vector 674  Inet.tas2.gw1.ppp[6].queue  "queue length"  ETV
vector 760  Inet.tas2.edge7.ppp[1].queue  "queue length"  ETV
vector 1862  Inet.sas5.host51.ppp[0].queue  "queue length"  ETV
vector 2856  Inet.sas8.host_WebServer44.ppp[0].queue  "queue length"  ETV
vector 3314  Inet.tas10.edge3.ppp[6].queue  "queue length"  ETV
vector 308  Inet.sas0.host75.ppp[0].queue  "queue length"  ETV
vector 4512  Inet.sas15.host25.ppp[0].queue  "queue length"  ETV
vector 242  Inet.sas0.host42.ppp[0].queue  "queue length"  ETV
vector 5702  Inet.sas18.host54.ppp[0].queue  "queue length"  ETV
vector 252  Inet.sas0.host_WebServer47.ppp[0].queue  "queue length"  ETV
vector 116  Inet.sas0.edge8.ppp[0].queue  "queue length"  ETV
vector 2510  Inet.sas7.gw1.ppp[1].queue  "queue length"  ETV
vector 2534  Inet.sas7.edge2.ppp[7].queue  "queue length"  ETV
vector 5994  Inet.sas19.host27.ppp[0].queue  "queue length"  ETV
vector 5778  Inet.sas18.host_WebServer92.ppp[0].queue  "queue length"  ETV
vector 5580  Inet.sas18.edge13.ppp[0].queue  "queue length"  ETV
vector 342  Inet.sas1.gw2.ppp[3].queue  "queue length"  ETV
vector 478  Inet.sas1.edge10.ppp[5].queue  "queue length"  ETV
vector 3614  Inet.sas11.host_WebServer18.ppp[0].queue  "queue length"  ETV
vector 3498  Inet.sas11.edge3.ppp[0].queue  "queue length"  ETV
vector 2672  Inet.sas8.gw1.ppp[3].queue  "queue length"  ETV
vector 2716  Inet.sas8.edge4.ppp[5].queue  "queue length"  ETV
vector 5718  Inet.sas18.host_WebServer62.ppp[0].queue  "queue length"  ETV
vector 5500  Inet.sas18.edge8.ppp[0].queue  "queue length"  ETV
vector 3474  Inet.sas11.gw1.ppp[5].queue  "queue length"  ETV
vector 3570  Inet.sas11.edge6.ppp[7].queue  "queue length"  ETV
vector 4888  Inet.sas16.host20.ppp[0].queue  "queue length"  ETV
vector 3668  Inet.sas11.host_WebServer45.ppp[0].queue  "queue length"  ETV
vector 3556  Inet.sas11.edge6.ppp[0].queue  "queue length"  ETV
vector 3470  Inet.sas11.gw1.ppp[3].queue  "queue length"  ETV
vector 3524  Inet.sas11.edge4.ppp[5].queue  "queue length"  ETV
vector 6014  Inet.sas19.host_WebServer37.ppp[0].queue  "queue length"  ETV
vector 5894  Inet.sas19.edge5.ppp[0].queue  "queue length"  ETV
vector 2244  Inet.tas6.edge11.ppp[2].queue  "queue length"  ETV
vector 4546  Inet.sas15.host42.ppp[0].queue  "queue length"  ETV
vector 2326  Inet.tas6.host19.ppp[0].queue  "queue length"  ETV
vector 3390  Inet.tas10.host14.ppp[0].queue  "queue length"  ETV
vector 5334  Inet.sas17.host_WebServer62.ppp[0].queue  "queue length"  ETV
vector 180  Inet.sas0.edge11.ppp[7].queue  "queue length"  ETV
vector 6066  Inet.sas19.host63.ppp[0].queue  "queue length"  ETV
vector 6052  Inet.sas19.host56.ppp[0].queue  "queue length"  ETV
vector 6034  Inet.sas19.host47.ppp[0].queue  "queue length"  ETV
vector 1122  Inet.tas3.host_WebServer38.ppp[0].queue  "queue length"  ETV
vector 966  Inet.tas3.edge7.ppp[0].queue  "queue length"  ETV
vector 5396  Inet.sas18.gw1.ppp[6].queue  "queue length"  ETV
vector 5502  Inet.sas18.edge8.ppp[1].queue  "queue length"  ETV
vector 3686  Inet.sas11.host54.ppp[0].queue  "queue length"  ETV
vector 3672  Inet.sas11.host47.ppp[0].queue  "queue length"  ETV
vector 3620  Inet.sas11.host21.ppp[0].queue  "queue length"  ETV
vector 1372  Inet.tas4.host17.ppp[0].queue  "queue length"  ETV
vector 5042  Inet.sas16.host97.ppp[0].queue  "queue length"  ETV
vector 5658  Inet.sas18.host32.ppp[0].queue  "queue length"  ETV
vector 4550  Inet.sas15.host_WebServer44.ppp[0].queue  "queue length"  ETV
vector 4362  Inet.sas15.edge6.ppp[0].queue  "queue length"  ETV
vector 5832  Inet.sas19.gw1.ppp[7].queue  "queue length"  ETV
vector 5956  Inet.sas19.edge8.ppp[6].queue  "queue length"  ETV
vector 238  Inet.sas0.host_WebServer40.ppp[0].queue  "queue length"  ETV
vector 98  Inet.sas0.edge7.ppp[0].queue  "queue length"  ETV
vector 5830  Inet.sas19.gw1.ppp[6].queue  "queue length"  ETV
vector 5940  Inet.sas19.edge7.ppp[6].queue  "queue length"  ETV
vector 562  Inet.sas1.host43.ppp[0].queue  "queue length"  ETV
vector 5970  Inet.sas19.host_WebServer15.ppp[0].queue  "queue length"  ETV
vector 5828  Inet.sas19.gw1.ppp[5].queue  "queue length"  ETV
vector 5920  Inet.sas19.edge6.ppp[5].queue  "queue length"  ETV
vector 3602  Inet.sas11.host_WebServer12.ppp[0].queue  "queue length"  ETV
vector 3478  Inet.sas11.edge2.ppp[0].queue  "queue length"  ETV
vector 3566  Inet.sas11.edge6.ppp[5].queue  "queue length"  ETV
vector 5038  Inet.sas16.host95.ppp[0].queue  "queue length"  ETV
vector 5258  Inet.sas17.host_WebServer24.ppp[0].queue  "queue length"  ETV
vector 5090  Inet.sas17.edge4.ppp[0].queue  "queue length"  ETV
vector 5070  Inet.sas17.gw2.ppp[1].queue  "queue length"  ETV
vector 5178  Inet.sas17.edge9.ppp[3].queue  "queue length"  ETV
vector 3184  Inet.tas9.host_WebServer59.ppp[0].queue  "queue length"  ETV
vector 2998  Inet.tas9.edge8.ppp[0].queue  "queue length"  ETV
vector 4682  Inet.sas16.gw2.ppp[4].queue  "queue length"  ETV
vector 4872  Inet.sas16.edge14.ppp[7].queue  "queue length"  ETV
vector 2414  Inet.tas6.host63.ppp[0].queue  "queue length"  ETV
vector 2044  Inet.sas5.host_WebServer142.ppp[0].queue  "queue length"  ETV
vector 1772  Inet.sas5.edge20.ppp[0].queue  "queue length"  ETV
vector 5390  Inet.sas18.gw1.ppp[3].queue  "queue length"  ETV
vector 5452  Inet.sas18.edge5.ppp[6].queue  "queue length"  ETV
vector 4006  Inet.sas13.host_WebServer43.ppp[0].queue  "queue length"  ETV
vector 3912  Inet.sas13.edge6.ppp[0].queue  "queue length"  ETV
vector 2894  Inet.tas9.gw1.ppp[4].queue  "queue length"  ETV
vector 2974  Inet.tas9.edge6.ppp[5].queue  "queue length"  ETV
vector 4580  Inet.sas15.host59.ppp[0].queue  "queue length"  ETV
vector 1888  Inet.sas5.host64.ppp[0].queue  "queue length"  ETV
vector 1822  Inet.sas5.host31.ppp[0].queue  "queue length"  ETV
vector 4868  Inet.sas16.edge14.ppp[5].queue  "queue length"  ETV
vector 5732  Inet.sas18.host69.ppp[0].queue  "queue length"  ETV
vector 2808  Inet.sas8.host20.ppp[0].queue  "queue length"  ETV
vector 2366  Inet.tas6.host_WebServer39.ppp[0].queue  "queue length"  ETV
vector 2162  Inet.tas6.edge6.ppp[0].queue  "queue length"  ETV
vector 1852  Inet.sas5.host46.ppp[0].queue  "queue length"  ETV
vector 4666  Inet.sas16.gw1.ppp[5].queue  "queue length"  ETV
vector 4740  Inet.sas16.edge7.ppp[1].queue  "queue length"  ETV
vector 3164  Inet.tas9.host_WebServer49.ppp[0].queue  "queue length"  ETV
vector 2220  Inet.tas6.edge9.ppp[6].queue  "queue length"  ETV
vector 858  Inet.tas2.host_WebServer48.ppp[0].queue  "queue length"  ETV
vector 758  Inet.tas2.edge7.ppp[0].queue  "queue length"  ETV
vector 786  Inet.tas2.host12.ppp[0].queue  "queue length"  ETV
vector 3660  Inet.sas11.host41.ppp[0].queue  "queue length"  ETV
vector 1950  Inet.sas5.host95.ppp[0].queue  "queue length"  ETV
vector 3122  Inet.tas9.host28.ppp[0].queue  "queue length"  ETV
vector 1998  Inet.sas5.host_WebServer119.ppp[0].queue  "queue length"  ETV
vector 1708  Inet.sas5.edge16.ppp[0].queue  "queue length"  ETV
vector 4296  Inet.sas15.gw1.ppp[6].queue  "queue length"  ETV
vector 4412  Inet.sas15.edge8.ppp[6].queue  "queue length"  ETV
vector 4184  Inet.sas14.host18.ppp[0].queue  "queue length"  ETV
vector 5978  Inet.sas19.host19.ppp[0].queue  "queue length"  ETV
vector 4374  Inet.sas15.edge6.ppp[6].queue  "queue length"  ETV
vector 5286  Inet.sas17.host38.ppp[0].queue  "queue length"  ETV
vector 536  Inet.sas1.host30.ppp[0].queue  "queue length"  ETV
vector 5290  Inet.sas17.host40.ppp[0].queue  "queue length"  ETV
vector 2710  Inet.sas8.edge4.ppp[2].queue  "queue length"  ETV
vector 5700  Inet.sas18.host53.ppp[0].queue  "queue length"  ETV
vector 1472  Inet.sas5.gw1.ppp[4].queue  "queue length"  ETV
vector 1562  Inet.sas5.edge7.ppp[1].queue  "queue length"  ETV
vector 2432  Inet.tas6.host72.ppp[0].queue  "queue length"  ETV
vector 5350  Inet.sas17.host70.ppp[0].queue  "queue length"  ETV
vector 816  Inet.tas2.host27.ppp[0].queue  "queue length"  ETV
vector 664  Inet.tas2.gw1.ppp[1].queue  "queue length"  ETV
vector 686  Inet.tas2.edge2.ppp[5].queue  "queue length"  ETV
vector 2832  Inet.sas8.host_WebServer32.ppp[0].queue  "queue length"  ETV
vector 2736  Inet.sas8.edge6.ppp[0].queue  "queue length"  ETV
vector 3472  Inet.sas11.gw1.ppp[4].queue  "queue length"  ETV
vector 3552  Inet.sas11.edge5.ppp[8].queue  "queue length"  ETV
vector 2032  Inet.sas5.host_WebServer136.ppp[0].queue  "queue length"  ETV
vector 1756  Inet.sas5.edge19.ppp[0].queue  "queue length"  ETV
vector 1488  Inet.sas5.gw2.ppp[4].queue  "queue length"  ETV
vector 1674  Inet.sas5.edge14.ppp[2].queue  "queue length"  ETV
vector 2600  Inet.sas7.host_WebServer9.ppp[0].queue  "queue length"  ETV
vector 2520  Inet.sas7.edge2.ppp[0].queue  "queue length"  ETV
vector 2890  Inet.tas9.gw1.ppp[2].queue  "queue length"  ETV
vector 2944  Inet.tas9.edge4.ppp[10].queue  "queue length"  ETV
vector 4028  Inet.sas14.gw1.ppp[2].queue  "queue length"  ETV
vector 4062  Inet.sas14.edge3.ppp[3].queue  "queue length"  ETV
vector 1970  Inet.sas5.host105.ppp[0].queue  "queue length"  ETV
vector 4698  Inet.sas16.edge4.ppp[1].queue  "queue length"  ETV
vector 5822  Inet.sas19.gw1.ppp[2].queue  "queue length"  ETV
vector 5858  Inet.sas19.edge3.ppp[1].queue  "queue length"  ETV
vector 2842  Inet.sas8.host_WebServer37.ppp[0].queue  "queue length"  ETV
vector 5062  Inet.sas17.gw1.ppp[4].queue  "queue length"  ETV
vector 5136  Inet.sas17.edge6.ppp[4].queue  "queue length"  ETV
vector 3806  Inet.sas12.host_WebServer22.ppp[0].queue  "queue length"  ETV
vector 3742  Inet.sas12.edge4.ppp[0].queue  "queue length"  ETV
vector 330  Inet.sas1.gw1.ppp[3].queue  "queue length"  ETV
vector 388  Inet.sas1.edge5.ppp[5].queue  "queue length"  ETV
vector 1810  Inet.sas5.host25.ppp[0].queue  "queue length"  ETV
vector 4516  Inet.sas15.host_WebServer27.ppp[0].queue  "queue length"  ETV
vector 4340  Inet.sas15.edge5.ppp[0].queue  "queue length"  ETV
vector 5064  Inet.sas17.gw1.ppp[5].queue  "queue length"  ETV
vector 5142  Inet.sas17.edge7.ppp[1].queue  "queue length"  ETV
vector 782  Inet.tas2.host_WebServer10.ppp[0].queue  "queue length"  ETV
vector 3144  Inet.tas9.host39.ppp[0].queue  "queue length"  ETV
vector 676  Inet.tas2.edge2.ppp[0].queue  "queue length"  ETV
vector 1236  Inet.tas4.gw1.ppp[2].queue  "queue length"  ETV
vector 1268  Inet.tas4.edge3.ppp[3].queue  "queue length"  ETV
vector 6002  Inet.sas19.host31.ppp[0].queue  "queue length"  ETV
vector 5172  Inet.sas17.edge9.ppp[0].queue  "queue length"  ETV
vector 5394  Inet.sas18.gw1.ppp[5].queue  "queue length"  ETV
vector 5498  Inet.sas18.edge7.ppp[10].queue  "queue length"  ETV
vector 2242  Inet.tas6.edge11.ppp[1].queue  "queue length"  ETV
vector 4508  Inet.sas15.host23.ppp[0].queue  "queue length"  ETV
vector 668  Inet.tas2.gw1.ppp[3].queue  "queue length"  ETV
vector 720  Inet.tas2.edge4.ppp[6].queue  "queue length"  ETV
vector 1490  Inet.sas5.gw2.ppp[5].queue  "queue length"  ETV
vector 1696  Inet.sas5.edge15.ppp[5].queue  "queue length"  ETV
vector 2330  Inet.tas6.host_WebServer21.ppp[0].queue  "queue length"  ETV
vector 2110  Inet.tas6.edge3.ppp[0].queue  "queue length"  ETV
vector 5274  Inet.sas17.host32.ppp[0].queue  "queue length"  ETV
vector 3174  Inet.tas9.host54.ppp[0].queue  "queue length"  ETV
vector 1466  Inet.sas5.gw1.ppp[1].queue  "queue length"  ETV
vector 1514  Inet.sas5.edge4.ppp[4].queue  "queue length"  ETV
vector 2596  Inet.sas7.host_WebServer7.ppp[0].queue  "queue length"  ETV
vector 2970  Inet.tas9.edge6.ppp[3].queue  "queue length"  ETV
vector 4878  Inet.sas16.host_WebServer15.ppp[0].queue  "queue length"  ETV
vector 2826  Inet.sas8.host29.ppp[0].queue  "queue length"  ETV
vector 4684  Inet.sas16.edge3.ppp[0].queue  "queue length"  ETV
vector 24  Inet.sas0.gw1.ppp[5].queue  "queue length"  ETV
vector 106  Inet.sas0.edge7.ppp[4].queue  "queue length"  ETV
vector 3098  Inet.tas9.host_WebServer16.ppp[0].queue  "queue length"  ETV
vector 2912  Inet.tas9.edge3.ppp[0].queue  "queue length"  ETV
vector 4288  Inet.sas15.gw1.ppp[2].queue  "queue length"  ETV
vector 4332  Inet.sas15.edge4.ppp[2].queue  "queue length"  ETV
vector 5694  Inet.sas18.host50.ppp[0].queue  "queue length"  ETV
vector 3240  Inet.tas9.host87.ppp[0].queue  "queue length"  ETV
vector 840  Inet.tas2.host39.ppp[0].queue  "queue length"  ETV
vector 2404  Inet.tas6.host58.ppp[0].queue  "queue length"  ETV
vector 3446  Inet.tas10.host42.ppp[0].queue  "queue length"  ETV
vector 6046  Inet.sas19.host53.ppp[0].queue  "queue length"  ETV
vector 2898  Inet.tas9.gw1.ppp[6].queue  "queue length"  ETV
vector 3004  Inet.tas9.edge8.ppp[3].queue  "queue length"  ETV
vector 3120  Inet.tas9.host27.ppp[0].queue  "queue length"  ETV
vector 4260  Inet.sas14.host_WebServer56.ppp[0].queue  "queue length"  ETV
vector 4142  Inet.sas14.edge8.ppp[0].queue  "queue length"  ETV
vector 236  Inet.sas0.host39.ppp[0].queue  "queue length"  ETV
vector 1430  Inet.tas4.host_WebServer46.ppp[0].queue  "queue length"  ETV
vector 1328  Inet.tas4.edge7.ppp[0].queue  "queue length"  ETV
vector 1468  Inet.sas5.gw1.ppp[2].queue  "queue length"  ETV
vector 1528  Inet.sas5.edge5.ppp[2].queue  "queue length"  ETV
vector 1334  Inet.tas4.edge7.ppp[3].queue  "queue length"  ETV
vector 4882  Inet.sas16.host17.ppp[0].queue  "queue length"  ETV
vector 2830  Inet.sas8.host31.ppp[0].queue  "queue length"  ETV
vector 5762  Inet.sas18.host84.ppp[0].queue  "queue length"  ETV
vector 4978  Inet.sas16.host65.ppp[0].queue  "queue length"  ETV
vector 2908  Inet.tas9.gw2.ppp[4].queue  "queue length"  ETV
vector 3078  Inet.tas9.edge12.ppp[9].queue  "queue length"  ETV
vector 672  Inet.tas2.gw1.ppp[5].queue  "queue length"  ETV
vector 748  Inet.tas2.edge6.ppp[1].queue  "queue length"  ETV
vector 3230  Inet.tas9.host82.ppp[0].queue  "queue length"  ETV
vector 2210  Inet.tas6.edge9.ppp[1].queue  "queue length"  ETV
vector 1360  Inet.tas4.host11.ppp[0].queue  "queue length"  ETV
vector 2398  Inet.tas6.host55.ppp[0].queue  "queue length"  ETV
vector 4336  Inet.sas15.edge4.ppp[4].queue  "queue length"  ETV
vector 3284  Inet.tas10.gw1.ppp[5].queue  "queue length"  ETV
vector 3366  Inet.tas10.edge6.ppp[2].queue  "queue length"  ETV
vector 5934  Inet.sas19.edge7.ppp[3].queue  "queue length"  ETV
vector 3454  Inet.tas10.host46.ppp[0].queue  "queue length"  ETV
vector 532  Inet.sas1.host_WebServer28.ppp[0].queue  "queue length"  ETV
vector 378  Inet.sas1.edge5.ppp[0].queue  "queue length"  ETV
vector 2942  Inet.tas9.edge4.ppp[9].queue  "queue length"  ETV
vector 5834  Inet.sas19.edge2.ppp[0].queue  "queue length"  ETV
vector 100  Inet.sas0.edge7.ppp[1].queue  "queue length"  ETV
vector 628  Inet.sas1.host76.ppp[0].queue  "queue length"  ETV
vector 2852  Inet.sas8.host42.ppp[0].queue  "queue length"  ETV
vector 5640  Inet.sas18.host23.ppp[0].queue  "queue length"  ETV
vector 618  Inet.sas1.host71.ppp[0].queue  "queue length"  ETV
vector 5874  Inet.sas19.edge3.ppp[9].queue  "queue length"  ETV
vector 5760  Inet.sas18.host83.ppp[0].queue  "queue length"  ETV
vector 1390  Inet.tas4.host26.ppp[0].queue  "queue length"  ETV
vector 3424  Inet.tas10.host31.ppp[0].queue  "queue length"  ETV
vector 334  Inet.sas1.gw1.ppp[5].queue  "queue length"  ETV
vector 418  Inet.sas1.edge7.ppp[2].queue  "queue length"  ETV
vector 2652  Inet.sas7.host35.ppp[0].queue  "queue length"  ETV
vector 518  Inet.sas1.host_WebServer21.ppp[0].queue  "queue length"  ETV
vector 366  Inet.sas1.edge4.ppp[0].queue  "queue length"  ETV
vector 5072  Inet.sas17.gw2.ppp[2].queue  "queue length"  ETV
vector 5208  Inet.sas17.edge10.ppp[8].queue  "queue length"  ETV
vector 5028  Inet.sas16.host_WebServer90.ppp[0].queue  "queue length"  ETV
vector 4836  Inet.sas16.edge13.ppp[0].queue  "queue length"  ETV
vector 4658  Inet.sas16.gw1.ppp[1].queue  "queue length"  ETV
vector 4690  Inet.sas16.edge3.ppp[3].queue  "queue length"  ETV
vector 2674  Inet.sas8.gw1.ppp[4].queue  "queue length"  ETV
vector 2734  Inet.sas8.edge5.ppp[5].queue  "queue length"  ETV
vector 3654  Inet.sas11.host38.ppp[0].queue  "queue length"  ETV
vector 5570  Inet.sas18.edge12.ppp[1].queue  "queue length"  ETV
vector 534  Inet.sas1.host29.ppp[0].queue  "queue length"  ETV
vector 4672  Inet.sas16.gw1.ppp[8].queue  "queue length"  ETV
vector 4800  Inet.sas16.edge10.ppp[8].queue  "queue length"  ETV
vector 1412  Inet.tas4.host37.ppp[0].queue  "queue length"  ETV
vector 3648  Inet.sas11.host35.ppp[0].queue  "queue length"  ETV
vector 4498  Inet.sas15.host18.ppp[0].queue  "queue length"  ETV
vector 1410  Inet.tas4.host36.ppp[0].queue  "queue length"  ETV
vector 3068  Inet.tas9.edge12.ppp[4].queue  "queue length"  ETV
vector 2094  Inet.tas6.gw1.ppp[6].queue  "queue length"  ETV
vector 2202  Inet.tas6.edge8.ppp[3].queue  "queue length"  ETV
vector 570  Inet.sas1.host47.ppp[0].queue  "queue length"  ETV
vector 1214  Inet.tas3.host84.ppp[0].queue  "queue length"  ETV
vector 524  Inet.sas1.host_WebServer24.ppp[0].queue  "queue length"  ETV
vector 3374  Inet.tas10.edge6.ppp[6].queue  "queue length"  ETV
vector 6058  Inet.sas19.host59.ppp[0].queue  "queue length"  ETV
vector 4922  Inet.sas16.host_WebServer37.ppp[0].queue  "queue length"  ETV
vector 1820  Inet.sas5.host_WebServer30.ppp[0].queue  "queue length"  ETV
vector 1524  Inet.sas5.edge5.ppp[0].queue  "queue length"  ETV
vector 4592  Inet.sas15.host65.ppp[0].queue  "queue length"  ETV
vector 2678  Inet.sas8.gw1.ppp[6].queue  "queue length"  ETV
vector 2760  Inet.sas8.edge7.ppp[3].queue  "queue length"  ETV
vector 5964  Inet.sas19.host_WebServer12.ppp[0].queue  "queue length"  ETV
vector 5388  Inet.sas18.gw1.ppp[2].queue  "queue length"  ETV
vector 5432  Inet.sas18.edge4.ppp[2].queue  "queue length"  ETV
vector 480  Inet.sas1.edge10.ppp[6].queue  "queue length"  ETV
vector 290  Inet.sas0.host66.ppp[0].queue  "queue length"  ETV
vector 1238  Inet.tas4.gw1.ppp[3].queue  "queue length"  ETV
vector 1288  Inet.tas4.edge4.ppp[5].queue  "queue length"  ETV
vector 5044  Inet.sas16.host98.ppp[0].queue  "queue length"  ETV
vector 3428  Inet.tas10.host_WebServer33.ppp[0].queue  "queue length"  ETV
vector 3342  Inet.tas10.edge5.ppp[1].queue  "queue length"  ETV
vector 1242  Inet.tas4.gw1.ppp[5].queue  "queue length"  ETV
vector 1314  Inet.tas4.edge6.ppp[1].queue  "queue length"  ETV
vector 2518  Inet.sas7.gw1.ppp[5].queue  "queue length"  ETV
vector 2586  Inet.sas7.edge6.ppp[3].queue  "queue length"  ETV
vector 1240  Inet.tas4.gw1.ppp[4].queue  "queue length"  ETV
vector 1310  Inet.tas4.edge5.ppp[6].queue  "queue length"  ETV
vector 6042  Inet.sas19.host51.ppp[0].queue  "queue length"  ETV
vector 3278  Inet.tas10.gw1.ppp[2].queue  "queue length"  ETV
vector 3304  Inet.tas10.edge3.ppp[1].queue  "queue length"  ETV
vector 1400  Inet.tas4.host_WebServer31.ppp[0].queue  "queue length"  ETV
vector 1298  Inet.tas4.edge5.ppp[0].queue  "queue length"  ETV
vector 6020  Inet.sas19.host40.ppp[0].queue  "queue length"  ETV
vector 3134  Inet.tas9.host_WebServer34.ppp[0].queue  "queue length"  ETV
vector 2946  Inet.tas9.edge5.ppp[0].queue  "queue length"  ETV
vector 5790  Inet.sas18.host_WebServer98.ppp[0].queue  "queue length"  ETV
vector 5592  Inet.sas18.edge14.ppp[0].queue  "queue length"  ETV
vector 5948  Inet.sas19.edge8.ppp[2].queue  "queue length"  ETV
vector 5688  Inet.sas18.host47.ppp[0].queue  "queue length"  ETV
vector 5060  Inet.sas17.gw1.ppp[3].queue  "queue length"  ETV
vector 5122  Inet.sas17.edge5.ppp[6].queue  "queue length"  ETV
vector 3780  Inet.sas12.host9.ppp[0].queue  "queue length"  ETV
vector 4904  Inet.sas16.host28.ppp[0].queue  "queue length"  ETV
vector 5792  Inet.sas18.host99.ppp[0].queue  "queue length"  ETV
vector 1140  Inet.tas3.host47.ppp[0].queue  "queue length"  ETV
vector 272  Inet.sas0.host57.ppp[0].queue  "queue length"  ETV
vector 806  Inet.tas2.host22.ppp[0].queue  "queue length"  ETV
vector 5826  Inet.sas19.gw1.ppp[4].queue  "queue length"  ETV
vector 5904  Inet.sas19.edge5.ppp[5].queue  "queue length"  ETV
vector 1572  Inet.sas5.edge7.ppp[6].queue  "queue length"  ETV
vector 2646  Inet.sas7.host32.ppp[0].queue  "queue length"  ETV
vector 5022  Inet.sas16.host87.ppp[0].queue  "queue length"  ETV
vector 4002  Inet.sas13.host41.ppp[0].queue  "queue length"  ETV
vector 1992  Inet.sas5.host_WebServer116.ppp[0].queue  "queue length"  ETV
vector 5486  Inet.sas18.edge7.ppp[4].queue  "queue length"  ETV
vector 3414  Inet.tas10.host_WebServer26.ppp[0].queue  "queue length"  ETV
vector 3324  Inet.tas10.edge4.ppp[0].queue  "queue length"  ETV
vector 3800  Inet.sas12.host_WebServer19.ppp[0].queue  "queue length"  ETV
vector 5806  Inet.sas18.host_WebServer106.ppp[0].queue  "queue length"  ETV
vector 5606  Inet.sas18.edge15.ppp[0].queue  "queue length"  ETV
vector 5768  Inet.sas18.host_WebServer87.ppp[0].queue  "queue length"  ETV
vector 5568  Inet.sas18.edge12.ppp[0].queue  "queue length"  ETV
vector 1438  Inet.tas4.host50.ppp[0].queue  "queue length"  ETV
vector 5984  Inet.sas19.host22.ppp[0].queue  "queue length"  ETV
vector 3706  Inet.sas12.gw1.ppp[1].queue  "queue length"  ETV
vector 3722  Inet.sas12.edge2.ppp[4].queue  "queue length"  ETV
vector 4662  Inet.sas16.gw1.ppp[3].queue  "queue length"  ETV
vector 4716  Inet.sas16.edge5.ppp[4].queue  "queue length"  ETV
vector 5410  Inet.sas18.gw2.ppp[5].queue  "queue length"  ETV
vector 5604  Inet.sas18.edge14.ppp[6].queue  "queue length"  ETV
vector 2386  Inet.tas6.host49.ppp[0].queue  "queue length"  ETV
vector 4490  Inet.sas15.host_WebServer14.ppp[0].queue  "queue length"  ETV
vector 4308  Inet.sas15.edge3.ppp[0].queue  "queue length"  ETV
vector 5190  Inet.sas17.edge9.ppp[9].queue  "queue length"  ETV
vector 30  Inet.sas0.gw2.ppp[2].queue  "queue length"  ETV
vector 140  Inet.sas0.edge9.ppp[4].queue  "queue length"  ETV
vector 710  Inet.tas2.edge4.ppp[1].queue  "queue length"  ETV
vector 3214  Inet.tas9.host74.ppp[0].queue  "queue length"  ETV
vector 552  Inet.sas1.host38.ppp[0].queue  "queue length"  ETV
vector 2516  Inet.sas7.gw1.ppp[4].queue  "queue length"  ETV
vector 2578  Inet.sas7.edge5.ppp[7].queue  "queue length"  ETV
vector 3842  Inet.sas13.gw1.ppp[5].queue  "queue length"  ETV
vector 3922  Inet.sas13.edge6.ppp[5].queue  "queue length"  ETV
vector 3696  Inet.sas11.host59.ppp[0].queue  "queue length"  ETV
vector 4492  Inet.sas15.host15.ppp[0].queue  "queue length"  ETV
vector 5566  Inet.sas18.edge11.ppp[5].queue  "queue length"  ETV
vector 2860  Inet.sas8.host46.ppp[0].queue  "queue length"  ETV
vector 856  Inet.tas2.host47.ppp[0].queue  "queue length"  ETV
vector 4262  Inet.sas14.host57.ppp[0].queue  "queue length"  ETV
vector 2360  Inet.tas6.host36.ppp[0].queue  "queue length"  ETV
vector 1244  Inet.tas4.gw1.ppp[6].queue  "queue length"  ETV
vector 1342  Inet.tas4.edge7.ppp[7].queue  "queue length"  ETV
vector 4196  Inet.sas14.host24.ppp[0].queue  "queue length"  ETV
vector 4200  Inet.sas14.host_WebServer26.ppp[0].queue  "queue length"  ETV
vector 4078  Inet.sas14.edge4.ppp[0].queue  "queue length"  ETV
vector 1476  Inet.sas5.gw1.ppp[6].queue  "queue length"  ETV
vector 1602  Inet.sas5.edge9.ppp[7].queue  "queue length"  ETV
vector 5636  Inet.sas18.host21.ppp[0].queue  "queue length"  ETV
vector 5000  Inet.sas16.host76.ppp[0].queue  "queue length"  ETV
vector 3158  Inet.tas9.host46.ppp[0].queue  "queue length"  ETV
vector 306  Inet.sas0.host74.ppp[0].queue  "queue length"  ETV
vector 1212  Inet.tas3.host83.ppp[0].queue  "queue length"  ETV
vector 2636  Inet.sas7.host27.ppp[0].queue  "queue length"  ETV
vector 2906  Inet.tas9.gw2.ppp[3].queue  "queue length"  ETV
vector 3050  Inet.tas9.edge11.ppp[1].queue  "queue length"  ETV
vector 604  Inet.sas1.host64.ppp[0].queue  "queue length"  ETV
vector 3476  Inet.sas11.gw1.ppp[6].queue  "queue length"  ETV
vector 3592  Inet.sas11.edge7.ppp[10].queue  "queue length"  ETV
vector 1448  Inet.tas4.host55.ppp[0].queue  "queue length"  ETV
vector 250  Inet.sas0.host46.ppp[0].queue  "queue length"  ETV
vector 766  Inet.tas2.edge7.ppp[4].queue  "queue length"  ETV
vector 2088  Inet.tas6.gw1.ppp[3].queue  "queue length"  ETV
vector 2158  Inet.tas6.edge5.ppp[5].queue  "queue length"  ETV
vector 1386  Inet.tas4.host24.ppp[0].queue  "queue length"  ETV
vector 5386  Inet.sas18.gw1.ppp[1].queue  "queue length"  ETV
vector 5426  Inet.sas18.edge3.ppp[6].queue  "queue length"  ETV
vector 2896  Inet.tas9.gw1.ppp[5].queue  "queue length"  ETV
vector 2986  Inet.tas9.edge7.ppp[5].queue  "queue length"  ETV
vector 280  Inet.sas0.host61.ppp[0].queue  "queue length"  ETV
vector 1234  Inet.tas4.gw1.ppp[1].queue  "queue length"  ETV
vector 1254  Inet.tas4.edge2.ppp[3].queue  "queue length"  ETV
vector 1208  Inet.tas3.host_WebServer81.ppp[0].queue  "queue length"  ETV
vector 1070  Inet.tas3.edge13.ppp[5].queue  "queue length"  ETV
vector 538  Inet.sas1.host_WebServer31.ppp[0].queue  "queue length"  ETV
vector 2568  Inet.sas7.edge5.ppp[2].queue  "queue length"  ETV
vector 2754  Inet.sas8.edge7.ppp[0].queue  "queue length"  ETV
vector 1090  Inet.tas3.host22.ppp[0].queue  "queue length"  ETV
vector 34  Inet.sas0.gw2.ppp[4].queue  "queue length"  ETV
vector 178  Inet.sas0.edge11.ppp[6].queue  "queue length"  ETV
vector 3218  Inet.tas9.host76.ppp[0].queue  "queue length"  ETV
vector 5930  Inet.sas19.edge7.ppp[1].queue  "queue length"  ETV
vector 5696  Inet.sas18.host51.ppp[0].queue  "queue length"  ETV
vector 5748  Inet.sas18.host77.ppp[0].queue  "queue length"  ETV
vector 4726  Inet.sas16.edge6.ppp[0].queue  "queue length"  ETV
vector 4628  Inet.sas15.host83.ppp[0].queue  "queue length"  ETV
vector 4524  Inet.sas15.host31.ppp[0].queue  "queue length"  ETV
vector 502  Inet.sas1.host13.ppp[0].queue  "queue length"  ETV
vector 3546  Inet.sas11.edge5.ppp[5].queue  "queue length"  ETV
vector 148  Inet.sas0.edge9.ppp[8].queue  "queue length"  ETV
vector 4274  Inet.sas14.host63.ppp[0].queue  "queue length"  ETV
vector 4886  Inet.sas16.host19.ppp[0].queue  "queue length"  ETV
vector 4222  Inet.sas14.host_WebServer37.ppp[0].queue  "queue length"  ETV
vector 32  Inet.sas0.gw2.ppp[3].queue  "queue length"  ETV
vector 160  Inet.sas0.edge10.ppp[3].queue  "queue length"  ETV
vector 930  Inet.tas3.edge4.ppp[3].queue  "queue length"  ETV
vector 5494  Inet.sas18.edge7.ppp[8].queue  "queue length"  ETV
vector 4304  Inet.sas15.gw2.ppp[3].queue  "queue length"  ETV
vector 4466  Inet.sas15.edge11.ppp[6].queue  "queue length"  ETV
vector 3438  Inet.tas10.host38.ppp[0].queue  "queue length"  ETV
vector 3330  Inet.tas10.edge4.ppp[3].queue  "queue length"  ETV
vector 594  Inet.sas1.host59.ppp[0].queue  "queue length"  ETV
vector 3452  Inet.tas10.host45.ppp[0].queue  "queue length"  ETV
vector 3202  Inet.tas9.host68.ppp[0].queue  "queue length"  ETV
vector 3222  Inet.tas9.host78.ppp[0].queue  "queue length"  ETV
vector 4874  Inet.sas16.edge14.ppp[8].queue  "queue length"  ETV
vector 5248  Inet.sas17.host19.ppp[0].queue  "queue length"  ETV
vector 3398  Inet.tas10.host18.ppp[0].queue  "queue length"  ETV
vector 4040  Inet.sas14.gw1.ppp[8].queue  "queue length"  ETV
vector 4164  Inet.sas14.edge9.ppp[5].queue  "queue length"  ETV
vector 3282  Inet.tas10.gw1.ppp[4].queue  "queue length"  ETV